4
Properties=species:S:1:pos:R:3:forces:R:3 identifier=gen0 energy=4.7659934e-05 pbc="F F F"
N       -0.00619826      -0.00297500       0.31918600       0.01943086      -0.00097949      -0.17002296
H        0.92785078      -0.15836699      -0.08997700      -0.16094786       0.02511687       0.06135673
H       -0.59867722      -0.72121799      -0.12475900       0.09377232       0.13030270       0.05695140
H       -0.32297528       0.88256001      -0.10445000       0.04774470      -0.15444128       0.05171482
4
Properties=species:S:1:pos:R:3:forces:R:3 identifier=gen0 energy=3.05691e-05 pbc="F F F"
N       -0.00829222      -0.00139901       0.31914899       0.02087163      -0.00196135      -0.16984865
H        0.92882174      -0.15642801      -0.08308400      -0.16155976       0.02507062       0.06004046
H       -0.59601027      -0.72336799      -0.12508100       0.09297901       0.13083751       0.05687314
H       -0.32451925       0.88119501      -0.11098400       0.04770912      -0.15394679       0.05293385
4
Properties=species:S:1:pos:R:3:forces:R:3 identifier=gen0 energy=0.00015871646 pbc="F F F"
N       -0.00044250      -0.00005750       0.31924999      -0.00806951      -0.01452630      -0.17032534
H       -0.48043349      -0.80732149      -0.10729600       0.08282601       0.13905288       0.06318882
H       -0.45877150       0.81991249      -0.10686800       0.08642972      -0.13599584       0.05546557
H        0.93964750      -0.01253350      -0.10508600      -0.16118503       0.01146926       0.05167213
4
Properties=species:S:1:pos:R:3:forces:R:3 identifier=gen0 energy=0.00025687268 pbc="F F F"
N       -0.00218975      -0.00009272       0.31963301       0.00627536      -0.00231828      -0.35340062
H       -0.45167977       0.82338822      -0.10940400       0.09936228      -0.18032299       0.11835083
H       -0.48609972      -0.80345678      -0.11011000       0.10877176       0.17809010       0.11979872
H        0.93996924      -0.01983872      -0.10011900      -0.21440822       0.00455237       0.11525108
4
Properties=species:S:1:pos:R:3:forces:R:3 identifier=gen0 energy=0.00010907863 pbc="F F F"
N       -0.00827996      -0.00140624       0.31953999       0.00282581       0.00206451      -0.35539278
H        0.92874098      -0.15640724      -0.08320800      -0.20784588       0.03214285       0.11361821
H       -0.59595501      -0.72326726      -0.12521601       0.13257000       0.16669436       0.12340479
H       -0.32450601       0.88108075      -0.11111600       0.07245009      -0.20090173       0.11837098
4
Properties=species:S:1:pos:R:3:forces:R:3 identifier=gen0 energy=0.001371865 pbc="F F F"
N       -0.00042921      -0.00003352       0.32052901      -0.01112418      -0.02100918      -1.11799288
H       -0.48045826      -0.80736250      -0.10773100       0.34435517       0.57867926       0.38198480
H       -0.45886827       0.81998152      -0.10729000       0.35729605      -0.59065604       0.37052980
H        0.93975574      -0.01258552      -0.10550800      -0.69052702       0.03298597       0.36547822
4
Properties=species:S:1:pos:R:3:forces:R:3 identifier=gen0 energy=0.0012619633 pbc="F F F"
N       -0.00625072      -0.00298123       0.32046625       0.04504576       0.00626588      -1.11797154
H        0.92790526      -0.15837124      -0.09041175      -0.67083883       0.10887492       0.37072664
H       -0.59869778      -0.72132927      -0.12518276       0.41485694       0.54380071       0.38214847
H       -0.32295677       0.88268173      -0.10487175       0.21093613      -0.65894151       0.36509752
4
Properties=species:S:1:pos:R:3:forces:R:3 identifier=gen0 energy=0.001245075 pbc="F F F"
N       -0.00835376      -0.00139973       0.32043001       0.05364178       0.00020633      -1.11776865
H        0.92887926      -0.15643373      -0.08351900      -0.67428249       0.10917494       0.36596319
H       -0.59602773      -0.72348076      -0.12550500       0.41070303       0.54663128       0.38206786
H       -0.32449776       0.88131422      -0.11140600       0.20993887      -0.65601254       0.36973768
4
Properties=species:S:1:pos:R:3:forces:R:3 identifier=gen0 energy=0.0011880307 pbc="F F F"
N        0.00845053      -0.01880974       0.31987900      -0.00758095       0.06057764      -1.11760986
H        0.90415549      -0.23610373      -0.14500301      -0.63949406       0.14954977       0.41087496
H       -0.66775352      -0.65737677      -0.12800200       0.48109099       0.48364636       0.38420230
H       -0.24485250       0.91229022      -0.04687399       0.16598524      -0.69377381       0.32253253
4
Properties=species:S:1:pos:R:3:forces:R:3 identifier=gen0 energy=0.021838393 pbc="F F F"
N       -0.00801100      -0.00136400       0.30975175      -0.07556641      -0.01059175       2.25546169
H        0.93358302      -0.15725601      -0.07981624      -0.96519274       0.16843869      -0.77962720
H       -0.59922802      -0.72710198      -0.12205525       0.66503662       0.77606732      -0.72872823
H       -0.32634401       0.88572198      -0.10788024       0.37572131      -0.93391430      -0.74710488
4
Properties=species:S:1:pos:R:3:forces:R:3 identifier=gen0 energy=0.022008866 pbc="F F F"
N       -0.00213500      -0.00007872       0.30983299       0.00073165      -0.00424642       2.26211858
H       -0.45411101       0.82777423      -0.10614799       0.48667619      -0.87639487      -0.75329959
H       -0.48867801      -0.80772579      -0.10686299       0.51388717       0.85229552      -0.75082129
H        0.94492400      -0.01996972      -0.09682199      -1.00129390       0.02834585      -0.75799662
4
Properties=species:S:1:pos:R:3:forces:R:3 identifier=gen0 energy=0.0605171 pbc="F F F"
N       -0.00784425      -0.00133176       0.30278301      -0.12954615      -0.02261241       4.89065599
H        0.93577677      -0.15764976      -0.07744100      -0.49724418       0.09742702      -1.64270890
H       -0.60074025      -0.72889274      -0.11977600       0.39166468       0.42972833      -1.61870790
H       -0.32719225       0.88787425      -0.10556600       0.23512688      -0.50454295      -1.62923920
4
Properties=species:S:1:pos:R:3:forces:R:3 identifier=gen0 energy=0.060602117 pbc="F F F"
N       -0.00208200      -0.00008774       0.30287874      -0.02527932       0.00217717       4.88833809
H       -0.45522100       0.82977927      -0.10384025       0.27436450      -0.48316970      -1.62726486
H       -0.48989800      -0.80969179      -0.10455125       0.29107034       0.46780622      -1.62861907
H        0.94720101      -0.01999975      -0.09448724      -0.54015672       0.01318632      -1.63245404
4
Properties=species:S:1:pos:R:3:forces:R:3 identifier=gen0 energy=0.061794247 pbc="F F F"
N       -0.00585800      -0.00283698       0.30365700      -0.07716490      -0.02779445       3.23112869
H        0.93630099      -0.15988599      -0.08463700      -2.03898168       0.36296192      -1.11589503
H       -0.60433400      -0.72786105      -0.11975700       1.36368537       1.61428952      -1.03415179
H       -0.32610899       0.89058399      -0.09926300       0.75246006      -1.94945574      -1.08108175
4
Properties=species:S:1:pos:R:3:forces:R:3 identifier=gen0 energy=0.061737303 pbc="F F F"
N        0.00807049      -0.01783975       0.30309299       0.07074486      -0.18590465       3.22665095
H        0.91263551      -0.23866075      -0.13974100      -2.04629946       0.60149801      -0.99145979
H       -0.67370653      -0.66364771      -0.12260500       1.45695364       1.53654122      -1.02694070
H       -0.24699947       0.92014825      -0.04074699       0.51859969      -1.95213473      -1.20825040
4
Properties=species:S:1:pos:R:3:forces:R:3 identifier=gen0 energy=0.06179755 pbc="F F F"
N       -0.00785000      -0.00133799       0.30361900      -0.09637045      -0.01281516       3.23165774
H        0.93724298      -0.15789798      -0.07768100      -2.03414726       0.35236657      -1.13097882
H       -0.60168499      -0.73000002      -0.12008200       1.36627984       1.61210418      -1.03372014
H       -0.32770801       0.88923597      -0.10585600       0.76423645      -1.95165551      -1.06695986
4
Properties=species:S:1:pos:R:3:forces:R:3 identifier=gen0 energy=0.061898965 pbc="F F F"
N       -0.00044023      -0.00008748       0.30371699       0.00212973       0.01007592       3.23273420
H       -0.48488024      -0.81477749      -0.10211499       1.07123232       1.79667711      -1.07843626
H       -0.46294424       0.82746047      -0.10169999       1.01636326      -1.82773721      -1.07393956
H        0.94826472      -0.01259548      -0.09990199      -2.08972430       0.02098428      -1.08035958
4
Properties=species:S:1:pos:R:3:forces:R:3 identifier=gen0 energy=0.23881018 pbc="F F F"
N       -0.00200003      -0.00010001       0.29560000      -0.18914075      -0.01984352      15.11584091
H       -0.45179999       0.82359999      -0.10140000      -3.99118733       7.30926561      -5.05554914
H       -0.48629999      -0.80369997      -0.10210000      -4.26469469      -7.10073376      -5.05339813
H        0.94010001      -0.01980000      -0.09210000       8.44502258      -0.18868776      -5.00689125
4
Properties=species:S:1:pos:R:3:forces:R:3 identifier=gen0 energy=0.23806718 pbc="F F F"
N       -0.00769999      -0.00129999       0.29550001      -0.30916002      -0.05139583      15.09307861
H        0.92879999      -0.15649998      -0.07520001       8.29293060      -1.36004376      -4.80089903
H       -0.59630001      -0.72350001      -0.11720000      -5.20803881      -6.41695547      -5.21517563
H       -0.32480001       0.88129997      -0.10310000      -2.77573180       7.82839441      -5.07700396
4
Properties=species:S:1:pos:R:3:forces:R:3 identifier=gen0 energy=0.20603488 pbc="F F F"
N       -0.00556127      -0.00269500       0.28832674      -0.18061234      -0.08040576       8.91310978
H        0.94059575      -0.16068900      -0.07944925      -0.64477569       0.14716271      -2.98439002
H       -0.60728222      -0.73132503      -0.11473325       0.51477182       0.56462020      -2.95629454
H       -0.32775223       0.89470899      -0.09414425       0.31061503      -0.63137710      -2.97242641
4
Properties=species:S:1:pos:R:3:forces:R:3 identifier=gen0 energy=0.20605305 pbc="F F F"
N       -0.00745200      -0.00127227       0.28829101      -0.23903058      -0.03631576       8.91269779
H        0.94150603      -0.15866427      -0.07246001      -0.62609661       0.13053513      -2.98960066
H       -0.60465801      -0.73344624      -0.11506200       0.53316748       0.55085164      -2.95587373
H       -0.32939601       0.89338279      -0.10076900       0.33195981      -0.64507091      -2.96722436
4
Properties=species:S:1:pos:R:3:forces:R:3 identifier=gen0 energy=0.20604973 pbc="F F F"
N        0.00766346      -0.01693823       0.28778723       0.22803329      -0.52281761       8.89912701
H        0.91707551      -0.24011223      -0.13482074      -0.76644927       0.35775018      -2.93762469
H       -0.67672348      -0.66708827      -0.11760475       0.42652068       0.66799527      -2.94969749
H       -0.24801551       0.92413872      -0.03536174       0.11189522      -0.50292665      -3.01180410
4
Properties=species:S:1:pos:R:3:forces:R:3 identifier=gen0 energy=0.20613585 pbc="F F F"
N       -0.00041850      -0.00008348       0.28838423      -0.00872171       0.00337959       8.91617203
H       -0.48716751      -0.81860852      -0.09700774       0.36871430       0.61297554      -2.97276545
H       -0.46512151       0.83134449      -0.09659174       0.34110010      -0.61833906      -2.97035027
H        0.95270753      -0.01265248      -0.09478474      -0.70109153       0.00198388      -2.97305608
4
Properties=species:S:1:pos:R:3:forces:R:3 identifier=gen0 energy=2.1044207 pbc="F F F"
N       -0.02576076      -0.00938878       0.31435835      63.98867035      28.96423340       4.50927496
H       -0.47781503      -0.79642957      -0.08484089     -19.79441261     -31.63265419     -18.50687599
H       -0.46143979       0.81843221      -0.10105030      -5.07228613       3.81170297      -3.57374310
H        0.96501559      -0.01261386      -0.12846716     -39.12197113      -1.14327931      17.57134438
4
Properties=species:S:1:pos:R:3:forces:R:3 identifier=gen0 energy=1.5719318 pbc="F F F"
N       -0.01613006      -0.00290352       0.32930595      40.62242508      -0.85223979     -17.44742966
H       -0.49914026      -0.81275922      -0.10029827       3.78728414       3.22334480      -0.21081044
H       -0.46301860       0.81938374      -0.10508811      -0.98430109      -0.05103416      -0.56878120
H        0.97828895      -0.00372100      -0.12391957     -43.42540741      -2.32007098      18.22702026
4
Properties=species:S:1:pos:R:3:forces:R:3 identifier=gen0 energy=0.6381395 pbc="F F F"
N       -0.00535000      -0.00256500       0.27506500      -0.42528623      -0.21661741      23.29148483
H        0.93181998      -0.15923500      -0.07519500      12.10635185      -1.98690534      -7.54344559
H       -0.60171998      -0.72467500      -0.11013500      -7.62287712      -9.25595570      -8.00559139
H       -0.32475001       0.88647497      -0.08973500      -4.05818844      11.45947933      -7.74244928
4
Properties=species:S:1:pos:R:3:forces:R:3 identifier=gen0 energy=0.6383014 pbc="F F F"
N       -0.00715003      -0.00120999       0.27502999      -0.59084105      -0.09588901      23.29214096
H        0.93269002      -0.15720999      -0.06827000      12.17253399      -1.99554503      -7.45820284
H       -0.59913999      -0.72676003      -0.11046000      -7.54657650      -9.31590176      -8.00927734
H       -0.32640001       0.88518000      -0.09630000      -4.03511763      11.40733337      -7.82465935
4
Properties=species:S:1:pos:R:3:forces:R:3 identifier=gen0 energy=0.6384406 pbc="F F F"
N       -0.00037750      -0.00004251       0.27511999      -0.04090725      -0.02141473      23.30033493
H       -0.48265749      -0.81102252      -0.09258999      -6.20114422     -10.43369770      -7.77248955
H       -0.46090749       0.82366753      -0.09216000      -5.91123533      10.60448456      -7.77508736
H        0.94394249      -0.01260251      -0.09037000      12.15328598      -0.14937307      -7.75275850
4
Properties=species:S:1:pos:R:3:forces:R:3 identifier=gen0 energy=0.63831794 pbc="F F F"
N        0.00726750      -0.01614750       0.27454999       0.64368004      -1.37262762      23.25114059
H        0.90867752      -0.23809750      -0.13006000      11.50883389      -2.67486143      -8.23736763
H       -0.67036253      -0.66120750      -0.11299000      -8.80944538      -8.11409092      -8.03090763
H       -0.24558249       0.91545248      -0.03150000      -3.34306669      12.16158104      -6.98286438
4
Properties=species:S:1:pos:R:3:forces:R:3 identifier=gen0 energy=2.59796 pbc="F F F"
N       -0.02213553       0.01250669       0.31866676      61.43217850     -52.98392487      10.47834778
H       -0.49131459      -0.80367744      -0.10683538       0.53438175       2.06444120       0.57494152
H       -0.44311440       0.79243946      -0.08524005     -29.84159660      51.53607941     -26.58882904
H        0.95656455      -0.00126872      -0.12659134     -32.12496185      -0.61659706      15.53554153
4
Properties=species:S:1:pos:R:3:forces:R:3 identifier=gen0 energy=2.191916 pbc="F F F"
N       -0.00459349      -0.01871056       0.31936210      13.18708229      70.20725250      14.00506973
H       -0.45196384      -0.78350949      -0.08926345     -31.47400093     -48.78089142     -25.12185478
H       -0.47072709       0.83162171      -0.12107751      12.08659840     -23.19490814      11.96051216
H        0.92728442      -0.02940166      -0.10902113       6.20031786       1.76854825      -0.84372556
4
Properties=species:S:1:pos:R:3:forces:R:3 identifier=gen0 energy=2.006148 pbc="F F F"
N       -0.01310517      -0.01194492       0.31246874      53.63306427      40.85443878      11.62086678
H       -0.48072100      -0.77557582      -0.08845308     -23.28093529     -45.15256500     -22.38080025
H       -0.47281009       0.80398113      -0.10879263       0.41077536       4.91391230      -0.90992874
H        0.96663624      -0.01646039      -0.11522301     -30.76290131      -0.61578947      11.66986179
4
Properties=species:S:1:pos:R:3:forces:R:3 identifier=gen0 energy=2.1915085 pbc="F F F"
N       -0.01113153       0.01839050       0.31958973      31.66442299     -54.40373993     -11.34486294
H       -0.50410259      -0.83061963      -0.11778064      16.53997231      29.34006310      12.84336185
H       -0.45819890       0.81745178      -0.08579677     -13.08254433      23.66489029     -14.79046726
H        0.97343302      -0.00522264      -0.11601231     -35.12184906       1.39878678      13.29196835
4
Properties=species:S:1:pos:R:3:forces:R:3 identifier=gen0 energy=3.8139117 pbc="F F F"
N        0.02788320      -0.01112333       0.31333411     -97.96768188      27.39328003      24.93655205
H       -0.46976471      -0.80201137      -0.11024886      -0.49193174      -5.33411741      -0.80412632
H       -0.45795894       0.82730216      -0.12821586      13.87788105     -20.87686348      13.34317780
H        0.89984047      -0.01416748      -0.07486939      84.58172607      -1.18229854     -37.47560501
4
Properties=species:S:1:pos:R:3:forces:R:3 identifier=gen0 energy=1.7723674 pbc="F F F"
N        0.00099228       0.00222782       0.33373785     -11.64816666      -9.25210667     -29.38471794
H       -0.49678630      -0.84871328      -0.11486074      18.19304085      34.03675079      14.06298447
H       -0.46016818       0.85193157      -0.11040757       9.49963570     -23.53319740       9.12343788
H        0.95596218      -0.00544610      -0.10846955     -16.04450989      -1.25144625       6.19829655
4
Properties=species:S:1:pos:R:3:forces:R:3 identifier=gen0 energy=3.9885602 pbc="F F F"
N        0.01249230       0.03248516       0.30131182     -20.39730644     -92.23570251      27.95122910
H       -0.49258798      -0.81504941      -0.13568151      18.65003014      29.75761032      17.34290314
H       -0.44779873       0.79229808      -0.07891934     -30.70965576      60.09486389     -29.91345024
H        0.92789441      -0.00973380      -0.08671098      32.45693207       2.38323355     -15.38068199
4
Properties=species:S:1:pos:R:3:forces:R:3 identifier=gen0 energy=2.9479716 pbc="F F F"
N       -0.00545064      -0.02378950       0.33411145      24.15108871      64.64431000     -17.88153648
H       -0.47820386      -0.79735929      -0.08946273     -13.88681793     -26.08465004     -15.01953888
H       -0.48739529       0.84412056      -0.13001046      22.14326477     -37.88718414      19.94082832
H        0.97104979      -0.02297178      -0.11463828     -32.40753555      -0.67247885      12.96024609
4
Properties=species:S:1:pos:R:3:forces:R:3 identifier=gen0 energy=3.3159685 pbc="F F F"
N        0.01997078      -0.01346061       0.30938438     -56.77645111      52.34405136      32.38517380
H       -0.45665634      -0.77543873      -0.10289013     -21.03677559     -37.92525101     -16.03420448
H       -0.47131699       0.81736058      -0.12510945      14.64384747     -15.93304920      11.23784447
H        0.90800256      -0.02846126      -0.08138478      63.16937637       1.51424909     -27.58881569
4
Properties=species:S:1:pos:R:3:forces:R:3 identifier=gen0 energy=2.2008824 pbc="F F F"
N        0.00078381       0.01265445       0.33759838     -11.00041008     -21.16201019     -32.28769684
H       -0.48764768      -0.84913290      -0.12493359      17.73620224      39.07137680      18.21195030
H       -0.46899271       0.85578477      -0.10256547      10.84844112     -21.48548317       6.77783585
H        0.95585656      -0.01930632      -0.11009932     -17.58423424       3.57611322       7.29790926
4
Properties=species:S:1:pos:R:3:forces:R:3 identifier=gen0 energy=3.0371213 pbc="F F F"
N        0.01553843       0.02011047       0.32472879     -39.19050598     -58.27259445      -5.21601200
H       -0.51065063      -0.84635824      -0.13452290      29.85883331      45.94463730      23.10983849
H       -0.44142169       0.81833583      -0.09892809      -9.22140503      14.97664738      -8.06547737
H        0.93653393       0.00791192      -0.09127779      18.55307961      -2.64868450      -9.82835007
4
Properties=species:S:1:pos:R:3:forces:R:3 identifier=gen0 energy=3.7304242 pbc="F F F"
N        0.02239889      -0.01974754       0.31954011     -66.54371643      57.83793640       8.83480358
H       -0.45923623      -0.80179679      -0.10216021     -10.31381321     -16.66110992      -7.96466732
H       -0.48120674       0.85275865      -0.13513370      27.16451836     -42.91789246      22.17415428
H        0.91804409      -0.03121429      -0.08224620      49.69301605       1.74106669     -23.04429054
4
Properties=species:S:1:pos:R:3:forces:R:3 identifier=gen0 energy=4.1052585 pbc="F F F"
N        0.02015842       0.00176142       0.30026239     -85.18550110      -1.11134386      45.41164398
H       -0.46265975      -0.79525715      -0.11294569      -5.51497173      -9.14277554      -2.12428713
H       -0.44543207       0.80841827      -0.10892061      -4.95130825      10.87967014      -3.46381283
H        0.88793337      -0.01492256      -0.07839609      95.65177917      -0.62554997     -39.82354355
4
Properties=species:S:1:pos:R:3:forces:R:3 identifier=gen0 energy=2.3877997 pbc="F F F"
N       -0.00235028      -0.01995555       0.31360650      23.33628654      42.26032257      33.94378662
H       -0.47994652      -0.76722783      -0.08745197     -26.63220215     -54.15251923     -25.81999016
H       -0.44033432       0.78191453      -0.12129258     -11.30269527      18.82551003      -3.42425609
H        0.92263114       0.00526885      -0.10486195      14.59861183      -6.93331385      -4.69953918
4
Properties=species:S:1:pos:R:3:forces:R:3 identifier=gen0 energy=3.0729728 pbc="F F F"
N        0.00982083       0.01725128       0.32050377     -11.78222275     -74.81780243      19.83411026
H       -0.50791961      -0.80994231      -0.12775314      20.94385529      23.71692467      15.26405334
H       -0.42943478       0.77774835      -0.09721801     -31.09467697      55.74200058     -25.48726273
H        0.92753357       0.01494267      -0.09553261      21.93304443      -4.64112282      -9.61090374
4
Properties=species:S:1:pos:R:3:forces:R:3 identifier=gen0 energy=1.8607078 pbc="F F F"
N       -0.00835902       0.00469663       0.31753841      -3.29776931      -5.79073906      32.62627029
H       -0.44522518      -0.79469359      -0.10671757     -19.34352303     -19.38297081      -8.78452682
H       -0.43386534       0.80914289      -0.09829807     -18.06117058      23.50232315     -11.90202808
H        0.88744950      -0.01914592      -0.11252278      40.70246506       1.67138803     -11.93971634
4
Properties=species:S:1:pos:R:3:forces:R:3 identifier=gen0 energy=2.4313917 pbc="F F F"
N       -0.00578956       0.01134352       0.32248306      15.87306690     -41.65053177     -20.91769600
H       -0.51786685      -0.84613717      -0.11546778      24.01001167      37.67050171      15.18749142
H       -0.45421121       0.82771194      -0.09545519      -5.70297766       6.78937292      -6.17492342
H        0.97786760       0.00708171      -0.11156009     -34.18009949      -2.80934310      11.90512943
4
Properties=species:S:1:pos:R:3:forces:R:3 identifier=gen0 energy=3.0831947 pbc="F F F"
N        0.01434594       0.00767365       0.31582588     -58.02960968     -45.28850174      25.37432480
H       -0.49276471      -0.82306480      -0.12029234      16.20247650      23.16775513      12.05714607
H       -0.42042720       0.80073541      -0.10613677     -20.17193413      27.92630196     -11.77915859
H        0.89884597       0.01465577      -0.08939676      61.99907303      -5.80555010     -25.65231133
4
Properties=species:S:1:pos:R:3:forces:R:3 identifier=gen0 energy=4.300561 pbc="F F F"
N        0.01039318      -0.01994624       0.30456218     -43.78882217      69.84852600      42.52334213
H       -0.44749349      -0.78057379      -0.09086573     -33.02991486     -52.42523575     -25.43568993
H       -0.45695066       0.82368314      -0.12445745       8.70836067     -17.50023270      10.39900780
H        0.89405096      -0.02316311      -0.08923900      68.11038208       0.07693841     -27.48666382
4
Properties=species:S:1:pos:R:3:forces:R:3 identifier=gen0 energy=3.443052 pbc="F F F"
N       -0.01275372       0.01419304       0.31224936      66.33016968     -51.75619888      26.76505470
H       -0.49052638      -0.77143931      -0.11088583      -6.00501585     -18.91274452      -5.41307259
H       -0.45813715       0.76787317      -0.08621256     -32.99380493      68.57810211     -32.11099625
H        0.96141726      -0.01062689      -0.11515098     -27.33134651       2.09083891      10.75901604
4
Properties=species:S:1:pos:R:3:forces:R:3 identifier=gen0 energy=2.771918 pbc="F F F"
N        0.00598762       0.01861887       0.34438568     -28.71144295     -53.17776489     -13.52167130
H       -0.49469537      -0.84888941      -0.13494557      23.48095322      45.42427063      23.84954834
H       -0.42873579       0.82351071      -0.10213274     -11.52211094      10.52340889      -5.69869471
H        0.91744351       0.00675982      -0.10730737      16.75260353      -2.76991081      -4.62918282
4
Properties=species:S:1:pos:R:3:forces:R:3 identifier=gen0 energy=3.7363787 pbc="F F F"
N       -0.02976552       0.01501926       0.32516986      62.27180099     -40.10511017     -17.19502258
H       -0.49508253      -0.82712877      -0.10729088       6.65013123      19.08790588       6.15935278
H       -0.46622750       0.82624424      -0.08155698     -11.01956177      17.44685936     -13.67308998
H        0.99107552      -0.01413472      -0.13632199     -57.90237427       3.57034421      24.70876312
4
Properties=species:S:1:pos:R:3:forces:R:3 identifier=gen0 energy=3.8076096 pbc="F F F"
N       -0.00570708      -0.01400050       0.30653530      31.61623955      77.94999695      37.96192169
H       -0.44477212      -0.75866807      -0.08841611     -47.98090363     -78.74364471     -37.83250427
H       -0.47545260       0.81013370      -0.11218382       5.60676479      -3.41520476       3.08898783
H        0.92593181      -0.03746514      -0.10593537      10.75789928       4.20885086      -3.21840239
4
Properties=species:S:1:pos:R:3:forces:R:3 identifier=gen0 energy=3.1198504 pbc="F F F"
N       -0.01001856       0.01210842       0.33994904      22.08945465     -38.73327637     -32.13874054
H       -0.51396883      -0.84486544      -0.11980399      23.11690331      38.66010666      17.53713799
H       -0.45571697       0.82905328      -0.09857365      -3.22935462       1.87095332      -3.16691780
H        0.97970438       0.00370376      -0.12157139     -41.97700119      -1.79778230      17.76852036
4
Properties=species:S:1:pos:R:3:forces:R:3 identifier=gen0 energy=3.2713182 pbc="F F F"
N        0.02259964       0.00033560       0.31957656     -81.03004456     -26.62813950      12.98744869
H       -0.50283200      -0.83482987      -0.11949003      23.27691078      30.11940002      14.55189133
H       -0.42549896       0.81484830      -0.11775771      -6.76719379       3.60428143       0.92343163
H        0.90573132       0.01964596      -0.08232884      64.52031708      -7.09554195     -28.46277046
4
Properties=species:S:1:pos:R:3:forces:R:3 identifier=gen0 energy=2.7826014 pbc="F F F"
N        0.02600769      -0.00762159       0.32533902     -50.92545319      29.63034248     -17.34728050
H       -0.48151273      -0.80853647      -0.11631735       8.37331867       7.07690334       5.65716887
H       -0.50433594       0.85251224      -0.12833767      33.73656082     -40.93000412      20.91895866
H        0.95984101      -0.03635418      -0.08068401       8.81557083       4.22275686      -9.22884941
4
Properties=species:S:1:pos:R:3:forces:R:3 identifier=gen0 energy=3.312646 pbc="F F F"
N        0.00213275      -0.02700517       0.30398455      33.99992752      82.92866516      14.19958878
H       -0.48648146      -0.76664186      -0.08050503     -30.00395775     -62.06601334     -30.36488914
H       -0.49019393       0.81198823      -0.12643141      17.71069908     -18.31187630      12.24693680
H        0.97454262      -0.01834122      -0.09704812     -21.70666885      -2.55078077       3.91836381
4
Properties=species:S:1:pos:R:3:forces:R:3 identifier=gen0 energy=4.8368387 pbc="F F F"
N        0.02302924       0.00860254       0.31429446    -104.10912323     -24.75696182      35.87868500
H       -0.46903205      -0.81699908      -0.12494762       8.68748760      17.39231110      10.85775757
H       -0.43355143       0.81517297      -0.10904562      -7.20241547       9.37373543      -3.12653470
H        0.87955427      -0.00677643      -0.08030122     102.62404633      -2.00908852     -43.60990906
4
Properties=species:S:1:pos:R:3:forces:R:3 identifier=gen0 energy=2.6234174 pbc="F F F"
N        0.00279597      -0.01031999       0.32801199      -7.06854486      36.24223709     -25.42195511
H       -0.47319603      -0.82401943      -0.10311122       0.04269666       4.94633961       0.17130837
H       -0.49566817       0.86982298      -0.12029809      27.30791092     -45.52224350      18.97050476
H        0.96606827      -0.03548355      -0.10460268     -20.28206062       4.33367252       6.28014374
4
Properties=species:S:1:pos:R:3:forces:R:3 identifier=gen0 energy=4.502244 pbc="F F F"
N        0.01790147      -0.01109873       0.30956897     -92.86152649      32.21290588      36.43338394
H       -0.45260829      -0.80727810      -0.10391899     -10.98307705     -12.39692402      -6.16117954
H       -0.44470626       0.83458424      -0.12207678       6.73513842     -19.01897049      10.09653187